17
Lattice="32.025 0.0 0.0 0.0 8.1 0.0 0.0 0.0 8.1" Properties=species:S:1:pos:R:3:momenta:R:3:magmoms:R:1 energy=-69.18739412717704 free_energy=-69.49169550165537 dipole="12.081919376794804 6.63913051093533 6.6391339780337395" magmom=0.0 pbc="T T T"
Al      14.99999990       1.01250000       1.01250000      -0.00033330      -0.00002079      -0.00001796       0.00000000
Al      17.02500044       3.03750000       1.01250000       0.00340532      -0.00000374      -0.00000140       0.00000000
Al      17.02500044       1.01250000       3.03750000       0.00340644      -0.00000640      -0.00000446       0.00000000
Al      14.99999991       3.03750000       3.03750000      -0.00022456      -0.00002638      -0.00003093       0.00000000
Al      14.99999990       5.06250000       1.01250000      -0.00028587       0.00002012      -0.00002122       0.00000000
Al      17.02500044       7.08750000       1.01250000       0.00339700       0.00000472       0.00000148       0.00000000
Al      17.02500044       5.06250000       3.03750000       0.00341633       0.00000542      -0.00000597       0.00000000
Al      14.99999990       7.08750000       3.03750000      -0.00028300       0.00002727      -0.00002427       0.00000000
Al      14.99999990       1.01250000       5.06250000      -0.00028477      -0.00002804       0.00001830       0.00000000
Al      17.02500044       3.03750000       5.06250000       0.00341993      -0.00000489       0.00000171       0.00000000
Al      17.02500044       1.01250000       7.08750000       0.00339942      -0.00000393       0.00000410       0.00000000
Al      14.99999990       3.03750000       7.08750000      -0.00028655      -0.00002263       0.00003048       0.00000000
Al      14.99999991       5.06250000       5.06250000      -0.00022457       0.00002640       0.00002201       0.00000000
Al      17.02500044       7.08750000       5.06250000       0.00340940       0.00000661      -0.00000109       0.00000000
Al      17.02500044       5.06250000       7.08750000       0.00340992       0.00000221       0.00000563       0.00000000
Al      14.99999990       7.08750000       7.08750000      -0.00033406       0.00002406       0.00002360       0.00000000
H        7.21363168       4.05000000       4.05000000     283.93115397       0.00000016      -0.00000019       0.00000000
17
Lattice="32.025 0.0 0.0 0.0 8.1 0.0 0.0 0.0 8.1" Properties=species:S:1:pos:R:3:momenta:R:3:magmoms:R:1 energy=-69.18739412717704 free_energy=-69.49169550165537 dipole="12.081919376794804 6.63913051093533 6.6391339780337395" magmom=0.0 pbc="T T T"
Al      14.99999975       1.01249998       1.01249998      -0.00121595      -0.00015975      -0.00015888       0.00000000
Al      17.02500194       3.03750000       1.01250000       0.00647226      -0.00003721      -0.00004254       0.00000000
Al      17.02500194       1.01249999       3.03749999       0.00647366      -0.00004476      -0.00003751       0.00000000
Al      14.99999986       3.03749997       3.03749997      -0.00039146      -0.00021888      -0.00022152       0.00000000
Al      14.99999979       5.06250002       1.01249997      -0.00088736       0.00016190      -0.00021016       0.00000000
Al      17.02500193       7.08750001       1.01250000       0.00640711       0.00003800      -0.00003534       0.00000000
Al      17.02500195       5.06250001       3.03749999       0.00655361       0.00004406      -0.00004412       0.00000000
Al      14.99999980       7.08750003       3.03749998      -0.00088575       0.00021293      -0.00016434       0.00000000
Al      14.99999979       1.01249997       5.06250002      -0.00088592      -0.00021357       0.00016200       0.00000000
Al      17.02500195       3.03749999       5.06250000       0.00655492      -0.00004336       0.00004314       0.00000000
Al      17.02500193       1.01249999       7.08750001       0.00640822      -0.00003804       0.00003698       0.00000000
Al      14.99999979       3.03749998       7.08750003      -0.00088676      -0.00016297       0.00021421       0.00000000
Al      14.99999986       5.06250003       5.06250003      -0.00038970       0.00021862       0.00021783       0.00000000
Al      17.02500194       7.08750001       5.06250000       0.00647474       0.00004495       0.00003592       0.00000000
Al      17.02500194       5.06250000       7.08750001       0.00647402       0.00003636       0.00004347       0.00000000
Al      14.99999974       7.08750002       7.08750002      -0.00121461       0.00016173       0.00016084       0.00000000
H        9.42704724       4.05000000       4.05000000     283.92070761       0.00000003      -0.00000020       0.00000000
17
Lattice="32.025 0.0 0.0 0.0 8.1 0.0 0.0 0.0 8.1" Properties=species:S:1:pos:R:3:momenta:R:3:magmoms:R:1 energy=-69.18739412717704 free_energy=-69.49169550165537 dipole="12.081919376794804 6.63913051093533 6.6391339780337395" magmom=0.0 pbc="T T T"
Al      14.99999882       1.01249986       1.01249987      -0.00577994      -0.00073809      -0.00073818       0.00000000
Al      17.02500395       3.03749997       1.01249996       0.00710432      -0.00019614      -0.00025716       0.00000000
Al      17.02500396       1.01249996       3.03749997       0.00710517      -0.00025866      -0.00019634       0.00000000
Al      14.99999959       3.03749978       3.03749978      -0.00099551      -0.00148656      -0.00148931       0.00000000
Al      14.99999909       5.06250014       1.01249980      -0.00432719       0.00079397      -0.00124844       0.00000000
Al      17.02500390       7.08750003       1.01249997       0.00679509       0.00019333      -0.00019146       0.00000000
Al      17.02500403       5.06250004       3.03749996       0.00758642       0.00026681      -0.00026635       0.00000000
Al      14.99999909       7.08750020       3.03749986      -0.00432497       0.00125027      -0.00079594       0.00000000
Al      14.99999909       1.01249980       5.06250014      -0.00432655      -0.00125158       0.00079504       0.00000000
Al      17.02500403       3.03749996       5.06250004       0.00758874      -0.00026555       0.00026664       0.00000000
Al      17.02500390       1.01249997       7.08750003       0.00679695      -0.00019355       0.00019223       0.00000000
Al      14.99999909       3.03749986       7.08750020      -0.00432750      -0.00079492       0.00125161       0.00000000
Al      14.99999959       5.06250022       5.06250022      -0.00099512       0.00148679       0.00148654       0.00000000
Al      17.02500396       7.08750004       5.06250003       0.00710708       0.00025848       0.00019568       0.00000000
Al      17.02500396       5.06250003       7.08750004       0.00710724       0.00019527       0.00025677       0.00000000
Al      14.99999882       7.08750014       7.08750014      -0.00578006       0.00074014       0.00073868       0.00000000
H       11.64041920       4.05000000       4.05000000     283.91742353       0.00000013      -0.00000015       0.00000000
17
Lattice="32.025 0.0 0.0 0.0 8.1 0.0 0.0 0.0 8.1" Properties=species:S:1:pos:R:3:momenta:R:3:magmoms:R:1 energy=-69.18739412717704 free_energy=-69.49169550165537 dipole="12.081919376794804 6.63913051093533 6.6391339780337395" magmom=0.0 pbc="T T T"
Al      14.99999600       1.01249942       1.01249942      -0.01444077      -0.00257672      -0.00257508       0.00000000
Al      17.02500611       3.03749983       1.01249975       0.00796607      -0.00096825      -0.00155879       0.00000000
Al      17.02500611       1.01249975       3.03749983       0.00796662      -0.00156271      -0.00096867       0.00000000
Al      15.00000064       3.03749816       3.03749815       0.01225425      -0.01470161      -0.01470593       0.00000000
Al      14.99999707       5.06250066       1.01249886      -0.01054418       0.00324960      -0.00629315       0.00000000
Al      17.02500585       7.08750017       1.01249984       0.00663940       0.00089563      -0.00089075       0.00000000
Al      17.02500661       5.06250028       3.03749972       0.01139382       0.00187806      -0.00187794       0.00000000
Al      14.99999707       7.08750114       3.03749933      -0.01054068       0.00629793      -0.00325315       0.00000000
Al      14.99999707       1.01249885       5.06250066      -0.01054351      -0.00629931       0.00324880       0.00000000
Al      17.02500662       3.03749972       5.06250027       0.01139796      -0.00187680       0.00187541       0.00000000
Al      17.02500585       1.01249983       7.08750017       0.00664283      -0.00089533       0.00089487       0.00000000
Al      14.99999706       3.03749934       7.08750115      -0.01054547      -0.00325163       0.00630092       0.00000000
Al      15.00000064       5.06250184       5.06250184       0.01225350       0.01470174       0.01469864       0.00000000
Al      17.02500611       7.08750025       5.06250017       0.00797069       0.00156268       0.00096470       0.00000000
Al      17.02500611       5.06250017       7.08750025       0.00797146       0.00096668       0.00156117       0.00000000
Al      14.99999600       7.08750058       7.08750058      -0.01444225       0.00258004       0.00257899       0.00000000
H       13.85375017       4.05000000       4.04999999     283.90183093       0.00000013      -0.00000067       0.00000000
17
Lattice="32.025 0.0 0.0 0.0 8.1 0.0 0.0 0.0 8.1" Properties=species:S:1:pos:R:3:momenta:R:3:magmoms:R:1 energy=-69.18739412717704 free_energy=-69.49169550165537 dipole="12.081919376794804 6.63913051093533 6.6391339780337395" magmom=0.0 pbc="T T T"
Al      14.99998983       1.01249844       1.01249844      -0.02755222      -0.00327182      -0.00327011       0.00000000
Al      17.02500854       3.03749925       1.01249869       0.00760369      -0.00302198      -0.00595068       0.00000000
Al      17.02500854       1.01249868       3.03749925       0.00760472      -0.00595427      -0.00302254       0.00000000
Al      15.00000317       3.03748640       3.03748639      -0.01182296      -0.05678963      -0.05679348       0.00000000
Al      14.99999171       5.06250202       1.01249614      -0.02706714       0.00492242      -0.00988496       0.00000000
Al      17.02500770       7.08750067       1.01249934       0.00591135       0.00250559      -0.00250120       0.00000000
Al      17.02501182       5.06250215       3.03749785       0.02668162       0.01598047      -0.01598065       0.00000000
Al      14.99999171       7.08750386       3.03749798      -0.02706420       0.00988932      -0.00492598       0.00000000
Al      14.99999171       1.01249613       5.06250202      -0.02706597      -0.00989039       0.00492226       0.00000000
Al      17.02501182       3.03749785       5.06250215       0.02668437      -0.01597923       0.01597891       0.00000000
Al      17.02500771       1.01249933       7.08750067       0.00591385      -0.00250555       0.00250421       0.00000000
Al      14.99999171       3.03749798       7.08750387      -0.02706719      -0.00492388       0.00989115       0.00000000
Al      15.00000317       5.06251360       5.06251360      -0.01182231       0.05678925       0.05678782       0.00000000
Al      17.02500854       7.08750132       5.06250075       0.00760748       0.00595445       0.00301971       0.00000000
Al      17.02500854       5.06250075       7.08750131       0.00760745       0.00302048       0.00595219       0.00000000
Al      14.99998983       7.08750156       7.08750156      -0.02755204       0.00327474       0.00327333       0.00000000
H       16.06655837       4.05000000       4.04999999     283.78832581      -0.00000041      -0.00000022       0.00000000
17
Lattice="32.025 0.0 0.0 0.0 8.1 0.0 0.0 0.0 8.1" Properties=species:S:1:pos:R:3:momenta:R:3:magmoms:R:1 energy=-69.18739412717704 free_energy=-69.49169550165537 dipole="12.081919376794804 6.63913051093533 6.6391339780337395" magmom=0.0 pbc="T T T"
Al      14.99998185       1.01249812       1.01249812      -0.02254535       0.00061586       0.00061661       0.00000000
Al      17.02501044       3.03749819       1.01249685       0.00833105      -0.00316377      -0.00577720       0.00000000
Al      17.02501044       1.01249685       3.03749819       0.00833241      -0.00578009      -0.00316490       0.00000000
Al      14.99999842       3.03747181       3.03747180      -0.01046555      -0.03913190      -0.03913634       0.00000000
Al      14.99998348       5.06250261       1.01249473      -0.02316608      -0.00119155       0.00019918       0.00000000
Al      17.02500982       7.08750134       1.01249867       0.01146697       0.00162230      -0.00161868       0.00000000
Al      17.02501866       5.06251342       3.03748658       0.01369522       0.05409578      -0.05409614       0.00000000
Al      14.99998348       7.08750528       3.03749738      -0.02316318      -0.00019595       0.00118834       0.00000000
Al      14.99998348       1.01249472       5.06250261      -0.02316508       0.00019390      -0.00118908       0.00000000
Al      17.02501866       3.03748659       5.06251341       0.01369780      -0.05409395       0.05409666       0.00000000
Al      17.02500982       1.01249866       7.08750134       0.01146881      -0.00162249       0.00161976       0.00000000
Al      14.99998348       3.03749739       7.08750528      -0.02316557       0.00119049      -0.00019524       0.00000000
Al      14.99999842       5.06252819       5.06252819      -0.01046461       0.03913233       0.03913292       0.00000000
Al      17.02501045       7.08750315       5.06250180       0.00833388       0.00577983       0.00316409       0.00000000
Al      17.02501045       5.06250180       7.08750315       0.00833420       0.00316221       0.00577625       0.00000000
Al      14.99998185       7.08750188       7.08750188      -0.02254473      -0.00061296      -0.00061634       0.00000000
H       18.27838848       4.05000000       4.04999999     283.67475464      -0.00000048       0.00000037       0.00000000
17
Lattice="32.025 0.0 0.0 0.0 8.1 0.0 0.0 0.0 8.1" Properties=species:S:1:pos:R:3:momenta:R:3:magmoms:R:1 energy=-69.18739412717704 free_energy=-69.49169550165537 dipole="12.081919376794804 6.63913051093533 6.6391339780337395" magmom=0.0 pbc="T T T"
Al      14.99997791       1.01249824       1.01249825      -0.00705832      -0.00100376      -0.00100234       0.00000000
Al      17.02501561       3.03749771       1.01249507       0.02914635      -0.00027805      -0.00803108       0.00000000
Al      17.02501561       1.01249506       3.03749771       0.02914746      -0.00803514      -0.00027977       0.00000000
Al      14.99999792       3.03746026       3.03746025       0.00528264      -0.04304637      -0.04305164       0.00000000
Al      14.99997988       5.06250204       1.01249457      -0.00402330      -0.00116037      -0.00467245       0.00000000
Al      17.02501607       7.08750167       1.01249834       0.03235092       0.00203484      -0.00202995       0.00000000
Al      17.02502446       5.06252999       3.03747001       0.03452267       0.05661798      -0.05661913       0.00000000
Al      14.99997988       7.08750544       3.03749796      -0.00401992       0.00467683       0.00115646       0.00000000
Al      14.99997988       1.01249456       5.06250204      -0.00402243      -0.00467915      -0.00115794       0.00000000
Al      17.02502447       3.03747001       5.06252999       0.03452570      -0.05661617       0.05661857       0.00000000
Al      17.02501608       1.01249833       7.08750167       0.03235326      -0.00203503       0.00203225       0.00000000
Al      14.99997988       3.03749796       7.08750544      -0.00402338       0.00115908       0.00467767       0.00000000
Al      14.99999792       5.06253974       5.06253974       0.00528293       0.04304692       0.04304703       0.00000000
Al      17.02501562       7.08750494       5.06250229       0.02914952       0.00803499       0.00027777       0.00000000
Al      17.02501562       5.06250229       7.08750494       0.02915027       0.00027610       0.00803106       0.00000000
Al      14.99997791       7.08750176       7.08750176      -0.00705850       0.00100718       0.00100313       0.00000000
H       20.48983722       4.05000000       4.04999999     283.67548793      -0.00000045       0.00000035       0.00000000
17
Lattice="32.025 0.0 0.0 0.0 8.1 0.0 0.0 0.0 8.1" Properties=species:S:1:pos:R:3:momenta:R:3:magmoms:R:1 energy=-69.18739412717704 free_energy=-69.49169550165537 dipole="12.081919376794804 6.63913051093533 6.6391339780337395" magmom=0.0 pbc="T T T"
Al      14.99997482       1.01249748       1.01249748      -0.01973600      -0.00385796      -0.00385581       0.00000000
Al      17.02502666       3.03749710       1.01249188       0.04276563      -0.00319383      -0.01318305       0.00000000
Al      17.02502666       1.01249187       3.03749710       0.04276684      -0.01318751      -0.00319569       0.00000000
Al      14.99999777       3.03744594       3.03744593      -0.01007802      -0.05166480      -0.05166992       0.00000000
Al      14.99997778       5.06250210       1.01249177      -0.01563554       0.00107371      -0.01213658       0.00000000
Al      17.02502791       7.08750279       1.01249722       0.04596110       0.00554784      -0.00554246       0.00000000
Al      17.02503929       5.06254697       3.03745303       0.06008210       0.06031188      -0.06031353       0.00000000
Al      14.99997778       7.08750823       3.03749789      -0.01563202       0.01214160      -0.00107816       0.00000000
Al      14.99997778       1.01249176       5.06250210      -0.01563428      -0.01214338       0.00107541       0.00000000
Al      17.02503930       3.03745303       5.06254697       0.06008479      -0.06031026       0.06031197       0.00000000
Al      17.02502792       1.01249721       7.08750278       0.04596346      -0.00554805       0.00554539       0.00000000
Al      14.99997778       3.03749790       7.08750824      -0.01563525      -0.00107481       0.01214244       0.00000000
Al      14.99999777       5.06255406       5.06255406      -0.01007745       0.05166480       0.05166488       0.00000000
Al      17.02502667       7.08750813       5.06250290       0.04276902       0.01318762       0.00319314       0.00000000
Al      17.02502667       5.06250290       7.08750812       0.04276934       0.00319174       0.01318384       0.00000000
Al      14.99997482       7.08750253       7.08750252      -0.01973574       0.00386134       0.00385761       0.00000000
H       22.70134981       4.04999999       4.05000000     283.68483886      -0.00000049       0.00000037       0.00000000
17
Lattice="32.025 0.0 0.0 0.0 8.1 0.0 0.0 0.0 8.1" Properties=species:S:1:pos:R:3:momenta:R:3:magmoms:R:1 energy=-69.18739412717704 free_energy=-69.49169550165537 dipole="12.081919376794804 6.63913051093533 6.6391339780337395" magmom=0.0 pbc="T T T"
Al      14.99996520       1.01249677       1.01249677      -0.04412413       0.00036371       0.00036400       0.00000000
Al      17.02503849       3.03749584       1.01248829       0.03612207      -0.00614822      -0.00890491       0.00000000
Al      17.02503849       1.01248828       3.03749584       0.03612356      -0.00890742      -0.00614950       0.00000000
Al      14.99999149       3.03743178       3.03743177      -0.02953899      -0.04504812      -0.04505265       0.00000000
Al      14.99996954       5.06250208       1.01248893      -0.03841122      -0.00144540      -0.00534073       0.00000000
Al      17.02504135       7.08750426       1.01249575       0.04544606       0.00307812      -0.00307475       0.00000000
Al      17.02505543       5.06256434       3.03743566       0.04710245       0.05759674      -0.05759717       0.00000000
Al      14.99996955       7.08751108       3.03749791      -0.03840795       0.00534337       0.00144193       0.00000000
Al      14.99996954       1.01248891       5.06250208      -0.03840991      -0.00534578      -0.00144192       0.00000000
Al      17.02505543       3.03743567       5.06256434       0.04710451      -0.05759433       0.05759855       0.00000000
Al      17.02504135       1.01249574       7.08750426       0.04544773      -0.00307861       0.00307531       0.00000000
Al      14.99996954       3.03749792       7.08751109      -0.03841026       0.00144479       0.00534394       0.00000000
Al      14.99999149       5.06256822       5.06256822      -0.02953760       0.04504855       0.04505038       0.00000000
Al      17.02503850       7.08751172       5.06250416       0.03612455       0.00890702       0.00614945       0.00000000
Al      17.02503850       5.06250416       7.08751171       0.03612471       0.00614616       0.00890263       0.00000000
Al      14.99996520       7.08750324       7.08750323      -0.04412319      -0.00036067      -0.00036498       0.00000000
H       24.91292222       4.04999999       4.05000000     283.69068270      -0.00000042       0.00000039       0.00000000
