33
Lattice="36.075 0.0 0.0 0.0 8.1 0.0 0.0 0.0 8.1" Properties=species:S:1:pos:R:3:momenta:R:3:magmoms:R:1 energy=-125.92725108955105 free_energy=-126.6336490939947 dipole="2.7286568184569298 9.413532533201337 9.413532564328662" magmom=0.0 pbc="T T T"
Al      15.00000042       1.01250000       1.01250000       0.00225571      -0.00001037      -0.00001037       0.00000000
Al      17.02500200       3.03750000       1.01250000       0.00862771      -0.00000215      -0.00000220       0.00000000
Al      17.02500200       1.01250000       3.03750000       0.00862771      -0.00000220      -0.00000215       0.00000000
Al      15.00000042       3.03750000       3.03750000       0.00230103      -0.00001122      -0.00001122       0.00000000
Al      19.04999906       1.01250000       1.01250000      -0.00360221      -0.00000066      -0.00000066       0.00000000
Al      21.07500077       3.03750000       1.01250000       0.00374117      -0.00000046      -0.00000036       0.00000000
Al      21.07500077       1.01250000       3.03750000       0.00374117      -0.00000036      -0.00000046       0.00000000
Al      19.04999906       3.03750000       3.03750000      -0.00360032      -0.00000057      -0.00000057       0.00000000
Al      15.00000042       5.06250000       1.01250000       0.00227716       0.00001039      -0.00001120       0.00000000
Al      17.02500200       7.08750000       1.01250000       0.00862361       0.00000218      -0.00000218       0.00000000
Al      17.02500200       5.06250000       3.03750000       0.00863195       0.00000217      -0.00000217       0.00000000
Al      15.00000042       7.08750000       3.03750000       0.00227716       0.00001120      -0.00001039       0.00000000
Al      19.04999906       5.06250000       1.01250000      -0.00360130       0.00000063      -0.00000059       0.00000000
Al      21.07500077       7.08750000       1.01250000       0.00374158       0.00000044      -0.00000044       0.00000000
Al      21.07500077       5.06250000       3.03750000       0.00374115       0.00000038      -0.00000038       0.00000000
Al      19.04999906       7.08750000       3.03750000      -0.00360130       0.00000060      -0.00000063       0.00000000
Al      15.00000042       1.01250000       5.06250000       0.00227716      -0.00001121       0.00001039       0.00000000
Al      17.02500200       3.03750000       5.06250000       0.00863195      -0.00000217       0.00000217       0.00000000
Al      17.02500200       1.01250000       7.08750000       0.00862361      -0.00000218       0.00000218       0.00000000
Al      15.00000042       3.03750000       7.08750000       0.00227716      -0.00001039       0.00001121       0.00000000
Al      19.04999906       1.01250000       5.06250000      -0.00360130      -0.00000059       0.00000063       0.00000000
Al      21.07500077       3.03750000       5.06250000       0.00374115      -0.00000038       0.00000038       0.00000000
Al      21.07500077       1.01250000       7.08750000       0.00374159      -0.00000044       0.00000044       0.00000000
Al      19.04999906       3.03750000       7.08750000      -0.00360130      -0.00000063       0.00000059       0.00000000
Al      15.00000042       5.06250000       5.06250000       0.00230103       0.00001122       0.00001122       0.00000000
Al      17.02500200       7.08750000       5.06250000       0.00862771       0.00000220       0.00000215       0.00000000
Al      17.02500200       5.06250000       7.08750000       0.00862771       0.00000215       0.00000220       0.00000000
Al      15.00000042       7.08750000       7.08750000       0.00225571       0.00001037       0.00001037       0.00000000
Al      19.04999906       5.06250000       5.06250000      -0.00360032       0.00000057       0.00000057       0.00000000
Al      21.07500077       7.08750000       5.06250000       0.00374117       0.00000036       0.00000046       0.00000000
Al      21.07500077       5.06250000       7.08750000       0.00374117       0.00000046       0.00000036       0.00000000
Al      19.04999906       7.08750000       7.08750000      -0.00360221       0.00000066       0.00000066       0.00000000
H        5.65183657       4.05000000       4.05000000     283.97280795      -0.00000000       0.00000000       0.00000000
33
Lattice="36.075 0.0 0.0 0.0 8.1 0.0 0.0 0.0 8.1" Properties=species:S:1:pos:R:3:momenta:R:3:magmoms:R:1 energy=-125.92725108955105 free_energy=-126.6336490939947 dipole="2.7286568184569298 9.413532533201337 9.413532564328662" magmom=0.0 pbc="T T T"
Al      15.00000140       1.01249997       1.01249997       0.00060917      -0.00017666      -0.00017666       0.00000000
Al      17.02500735       3.03749999       1.01249999       0.01278768      -0.00003826      -0.00004373       0.00000000
Al      17.02500735       1.01249999       3.03749999       0.01278768      -0.00004373      -0.00003826       0.00000000
Al      15.00000154       3.03749996       3.03749996       0.00151778      -0.00023474      -0.00023474       0.00000000
Al      19.04999560       1.01250000       1.01250000      -0.01168828      -0.00000880      -0.00000880       0.00000000
Al      21.07500289       3.03750000       1.01250000       0.00403844      -0.00000271      -0.00000252       0.00000000
Al      21.07500289       1.01250000       3.03750000       0.00403844      -0.00000252      -0.00000271       0.00000000
Al      19.04999561       3.03750000       3.03750000      -0.01165485      -0.00000901      -0.00000901       0.00000000
Al      15.00000146       5.06250003       1.01249996       0.00098001       0.00017937      -0.00022825       0.00000000
Al      17.02500734       7.08750001       1.01249999       0.01271727       0.00003814      -0.00003814       0.00000000
Al      17.02500737       5.06250001       3.03749999       0.01287343       0.00004396      -0.00004396       0.00000000
Al      15.00000146       7.08750004       3.03749997       0.00098001       0.00022825      -0.00017937       0.00000000
Al      19.04999560       5.06250000       1.01250000      -0.01167245       0.00000878      -0.00000903       0.00000000
Al      21.07500289       7.08750000       1.01250000       0.00403628       0.00000276      -0.00000276       0.00000000
Al      21.07500289       5.06250000       3.03750000       0.00404116       0.00000247      -0.00000247       0.00000000
Al      19.04999560       7.08750000       3.03750000      -0.01167244       0.00000903      -0.00000878       0.00000000
Al      15.00000146       1.01249996       5.06250003       0.00098001      -0.00022825       0.00017937       0.00000000
Al      17.02500737       3.03749999       5.06250001       0.01287343      -0.00004396       0.00004396       0.00000000
Al      17.02500734       1.01249999       7.08750001       0.01271727      -0.00003814       0.00003814       0.00000000
Al      15.00000146       3.03749997       7.08750004       0.00098001      -0.00017937       0.00022825       0.00000000
Al      19.04999560       1.01250000       5.06250000      -0.01167245      -0.00000903       0.00000878       0.00000000
Al      21.07500289       3.03750000       5.06250000       0.00404116      -0.00000247       0.00000247       0.00000000
Al      21.07500289       1.01250000       7.08750000       0.00403628      -0.00000276       0.00000276       0.00000000
Al      19.04999560       3.03750000       7.08750000      -0.01167244      -0.00000878       0.00000903       0.00000000
Al      15.00000154       5.06250004       5.06250004       0.00151778       0.00023474       0.00023474       0.00000000
Al      17.02500735       7.08750001       5.06250001       0.01278768       0.00004373       0.00003826       0.00000000
Al      17.02500735       5.06250001       7.08750001       0.01278768       0.00003826       0.00004373       0.00000000
Al      15.00000140       7.08750003       7.08750003       0.00060917       0.00017666       0.00017666       0.00000000
Al      19.04999561       5.06250000       5.06250000      -0.01165485       0.00000901       0.00000901       0.00000000
Al      21.07500289       7.08750000       5.06250000       0.00403844       0.00000252       0.00000271       0.00000000
Al      21.07500289       5.06250000       7.08750000       0.00403844       0.00000271       0.00000252       0.00000000
Al      19.04999560       7.08750000       7.08750000      -0.01168828       0.00000880       0.00000880       0.00000000
H        9.30369551       4.05000000       4.05000000     283.97551874      -0.00000000       0.00000000       0.00000000
33
Lattice="36.075 0.0 0.0 0.0 8.1 0.0 0.0 0.0 8.1" Properties=species:S:1:pos:R:3:momenta:R:3:magmoms:R:1 energy=-125.92725108955105 free_energy=-126.6336490939947 dipole="2.7286568184569298 9.413532533201337 9.413532564328662" magmom=0.0 pbc="T T T"
Al      15.00000041       1.01249960       1.01249960      -0.00563255      -0.00189100      -0.00189100       0.00000000
Al      17.02501467       3.03749990       1.01249987       0.01839423      -0.00055451      -0.00082234       0.00000000
Al      17.02501467       1.01249987       3.03749990       0.01839423      -0.00082234      -0.00055451       0.00000000
Al      15.00000302       3.03749913       3.03749913       0.00965305      -0.00625971      -0.00625971       0.00000000
Al      19.04998820       1.01249998       1.01249998      -0.01839289      -0.00013020      -0.00013020       0.00000000
Al      21.07500474       3.03749999       1.01249999       0.00470160      -0.00003218      -0.00003573       0.00000000
Al      21.07500474       1.01249999       3.03749999       0.00470160      -0.00003573      -0.00003218       0.00000000
Al      19.04998829       3.03749997       3.03749997      -0.01782263      -0.00016514      -0.00016514       0.00000000
Al      15.00000118       5.06250043       1.01249932      -0.00232569       0.00220756      -0.00391448       0.00000000
Al      17.02501450       7.08750010       1.01249990       0.01748114       0.00052702      -0.00052702       0.00000000
Al      17.02501495       5.06250014       3.03749986       0.02015440       0.00091398      -0.00091398       0.00000000
Al      15.00000118       7.08750068       3.03749957      -0.00232569       0.00391448      -0.00220756       0.00000000
Al      19.04998824       5.06250002       1.01249997      -0.01815797       0.00013194      -0.00016138       0.00000000
Al      21.07500473       7.08750001       1.01249999       0.00465060       0.00003213      -0.00003213       0.00000000
Al      21.07500475       5.06250001       3.03749999       0.00476251       0.00003584      -0.00003584       0.00000000
Al      19.04998824       7.08750003       3.03749998      -0.01815797       0.00016138      -0.00013194       0.00000000
Al      15.00000118       1.01249932       5.06250043      -0.00232569      -0.00391448       0.00220756       0.00000000
Al      17.02501495       3.03749986       5.06250014       0.02015440      -0.00091398       0.00091398       0.00000000
Al      17.02501450       1.01249990       7.08750010       0.01748114      -0.00052702       0.00052702       0.00000000
Al      15.00000118       3.03749957       7.08750068      -0.00232569      -0.00220756       0.00391448       0.00000000
Al      19.04998824       1.01249997       5.06250002      -0.01815797      -0.00016138       0.00013194       0.00000000
Al      21.07500475       3.03749999       5.06250001       0.00476252      -0.00003584       0.00003584       0.00000000
Al      21.07500473       1.01249999       7.08750001       0.00465059      -0.00003213       0.00003213       0.00000000
Al      19.04998824       3.03749998       7.08750003      -0.01815797      -0.00013194       0.00016138       0.00000000
Al      15.00000302       5.06250087       5.06250087       0.00965305       0.00625971       0.00625971       0.00000000
Al      17.02501467       7.08750013       5.06250010       0.01839423       0.00082234       0.00055451       0.00000000
Al      17.02501467       5.06250010       7.08750013       0.01839423       0.00055451       0.00082234       0.00000000
Al      15.00000041       7.08750040       7.08750040      -0.00563255       0.00189100       0.00189100       0.00000000
Al      19.04998829       5.06250003       5.06250003      -0.01782263       0.00016514       0.00016514       0.00000000
Al      21.07500474       7.08750001       5.06250001       0.00470160       0.00003573       0.00003218       0.00000000
Al      21.07500474       5.06250001       7.08750001       0.00470160       0.00003218       0.00003573       0.00000000
Al      19.04998820       7.08750002       7.08750002      -0.01839289       0.00013020       0.00013020       0.00000000
H       12.95559734       4.05000000       4.05000000     283.97739592      -0.00000000       0.00000000       0.00000000
33
Lattice="36.075 0.0 0.0 0.0 8.1 0.0 0.0 0.0 8.1" Properties=species:S:1:pos:R:3:momenta:R:3:magmoms:R:1 energy=-125.92725108955105 free_energy=-126.6336490939947 dipole="2.7286568184569298 9.413532533201337 9.413532564328662" magmom=0.0 pbc="T T T"
Al      14.99999334       1.01249809       1.01249809      -0.02359751      -0.00224512      -0.00224512       0.00000000
Al      17.02502391       3.03749901       1.01249822       0.01600534      -0.00323319      -0.00628528       0.00000000
Al      17.02502391       1.01249822       3.03749901       0.01600534      -0.00628528      -0.00323319       0.00000000
Al      15.00000784       3.03748147       3.03748147      -0.01458149      -0.05606361      -0.05606361       0.00000000
Al      19.04997734       1.01249973       1.01249973      -0.02894871      -0.00105585      -0.00105585       0.00000000
Al      21.07500785       3.03749992       1.01249991       0.00701753      -0.00035250      -0.00049142       0.00000000
Al      21.07500785       1.01249991       3.03749992       0.00701753      -0.00049143      -0.00035250       0.00000000
Al      19.04997878       3.03749948       3.03749948      -0.02175501      -0.00322835      -0.00322835       0.00000000
Al      14.99999539       5.06250254       1.01249526      -0.02443934       0.00385129      -0.00706648       0.00000000
Al      17.02502281       7.08750082       1.01249918       0.01488143       0.00218297      -0.00218297       0.00000000
Al      17.02502900       5.06250393       3.03749607       0.03880059       0.02884300      -0.02884300       0.00000000
Al      14.99999539       7.08750474       3.03749746      -0.02443934       0.00706648      -0.00385129       0.00000000
Al      19.04997778       5.06250029       1.01249958      -0.02741217       0.00124316      -0.00210951       0.00000000
Al      21.07500774       7.08750007       1.01249993       0.00651820       0.00033715      -0.00033715       0.00000000
Al      21.07500802       5.06250010       3.03749990       0.00797041       0.00053691      -0.00053691       0.00000000
Al      19.04997778       7.08750042       3.03749971      -0.02741217       0.00210951      -0.00124316       0.00000000
Al      14.99999539       1.01249526       5.06250254      -0.02443934      -0.00706648       0.00385129       0.00000000
Al      17.02502900       3.03749607       5.06250393       0.03880058      -0.02884300       0.02884300       0.00000000
Al      17.02502281       1.01249918       7.08750082       0.01488143      -0.00218297       0.00218297       0.00000000
Al      14.99999539       3.03749746       7.08750474      -0.02443934      -0.00385129       0.00706648       0.00000000
Al      19.04997778       1.01249958       5.06250029      -0.02741217      -0.00210951       0.00124316       0.00000000
Al      21.07500802       3.03749990       5.06250010       0.00797041      -0.00053690       0.00053691       0.00000000
Al      21.07500774       1.01249993       7.08750007       0.00651820      -0.00033715       0.00033715       0.00000000
Al      19.04997778       3.03749971       7.08750042      -0.02741217      -0.00124316       0.00210951       0.00000000
Al      15.00000784       5.06251853       5.06251853      -0.01458149       0.05606361       0.05606361       0.00000000
Al      17.02502391       7.08750178       5.06250099       0.01600534       0.00628528       0.00323319       0.00000000
Al      17.02502391       5.06250099       7.08750178       0.01600534       0.00323319       0.00628528       0.00000000
Al      14.99999334       7.08750191       7.08750191      -0.02359751       0.00224512       0.00224512       0.00000000
Al      19.04997878       5.06250052       5.06250052      -0.02175501       0.00322835       0.00322835       0.00000000
Al      21.07500785       7.08750009       5.06250008       0.00701753       0.00049142       0.00035250       0.00000000
Al      21.07500785       5.06250008       7.08750009       0.00701753       0.00035250       0.00049142       0.00000000
Al      19.04997734       7.08750027       7.08750027      -0.02894871       0.00105585       0.00105585       0.00000000
H       16.60664157       4.05000000       4.05000000     283.80215411      -0.00000001      -0.00000000       0.00000000
33
Lattice="36.075 0.0 0.0 0.0 8.1 0.0 0.0 0.0 8.1" Properties=species:S:1:pos:R:3:momenta:R:3:magmoms:R:1 energy=-125.92725108955105 free_energy=-126.6336490939947 dipole="2.7286568184569298 9.413532533201337 9.413532564328662" magmom=0.0 pbc="T T T"
Al      14.99998708       1.01249842       1.01249842       0.00294631       0.00002311       0.00002311       0.00000000
Al      17.02503333       3.03749820       1.01249671       0.03620303       0.00010693      -0.00316706       0.00000000
Al      17.02503333       1.01249671       3.03749820       0.03620304      -0.00316706       0.00010693       0.00000000
Al      15.00000678       3.03746122       3.03746122       0.01378335      -0.04243735      -0.04243734       0.00000000
Al      19.04995990       1.01249924       1.01249924      -0.03734350      -0.00122352      -0.00122352       0.00000000
Al      21.07500956       3.03749948       1.01249908       0.00046006      -0.00194697      -0.00364852       0.00000000
Al      21.07500956       1.01249908       3.03749948       0.00046006      -0.00364852      -0.00194697       0.00000000
Al      19.04996773       3.03748810       3.03748810      -0.02774854      -0.04907910      -0.04907910       0.00000000
Al      14.99998917       5.06250233       1.01249544       0.00532588      -0.00053101      -0.00170695       0.00000000
Al      17.02503279       7.08750086       1.01249914       0.03573203      -0.00055156       0.00055156       0.00000000
Al      17.02504330       5.06252553       3.03747447       0.05353309       0.04494558      -0.04494559       0.00000000
Al      14.99998917       7.08750456       3.03749767       0.00532588       0.00170695       0.00053101       0.00000000
Al      19.04996038       5.06250128       1.01249807      -0.03819747       0.00352334      -0.00241896       0.00000000
Al      21.07500913       7.08750040       1.01249960       0.00007377       0.00094360      -0.00094361       0.00000000
Al      21.07501224       5.06250203       3.03749797       0.01840109       0.01697138      -0.01697138       0.00000000
Al      19.04996038       7.08750193       3.03749872      -0.03819747       0.00241896      -0.00352333       0.00000000
Al      14.99998917       1.01249544       5.06250233       0.00532588      -0.00170695      -0.00053101       0.00000000
Al      17.02504330       3.03747447       5.06252553       0.05353309      -0.04494559       0.04494558       0.00000000
Al      17.02503279       1.01249914       7.08750086       0.03573203       0.00055156      -0.00055156       0.00000000
Al      14.99998917       3.03749767       7.08750456       0.00532588       0.00053101       0.00170695       0.00000000
Al      19.04996038       1.01249807       5.06250128      -0.03819747      -0.00241896       0.00352333       0.00000000
Al      21.07501224       3.03749797       5.06250203       0.01840108      -0.01697138       0.01697138       0.00000000
Al      21.07500913       1.01249960       7.08750040       0.00007377      -0.00094361       0.00094361       0.00000000
Al      19.04996038       3.03749872       7.08750193      -0.03819747      -0.00352333       0.00241896       0.00000000
Al      15.00000678       5.06253878       5.06253878       0.01378335       0.04243734       0.04243735       0.00000000
Al      17.02503333       7.08750329       5.06250180       0.03620304       0.00316706      -0.00010692       0.00000000
Al      17.02503333       5.06250180       7.08750329       0.03620304      -0.00010692       0.00316706       0.00000000
Al      14.99998708       7.08750158       7.08750158       0.00294631      -0.00002311      -0.00002311       0.00000000
Al      19.04996773       5.06251190       5.06251190      -0.02774854       0.04907910       0.04907910       0.00000000
Al      21.07500956       7.08750092       5.06250052       0.00046006       0.00364852       0.00194697       0.00000000
Al      21.07500956       5.06250052       7.08750092       0.00046006       0.00194697       0.00364852       0.00000000
Al      19.04995990       7.08750076       7.08750076      -0.03734350       0.00122352       0.00122352       0.00000000
H       20.25469747       4.05000000       4.05000000     283.56218972      -0.00000000      -0.00000000       0.00000000
33
Lattice="36.075 0.0 0.0 0.0 8.1 0.0 0.0 0.0 8.1" Properties=species:S:1:pos:R:3:momenta:R:3:magmoms:R:1 energy=-125.92725108955105 free_energy=-126.6336490939947 dipole="2.7286568184569298 9.413532533201337 9.413532564328662" magmom=0.0 pbc="T T T"
Al      14.99998610       1.01249694       1.01249694      -0.01981310      -0.00306455      -0.00306455       0.00000000
Al      17.02505629       3.03749658       1.01249199       0.04474811      -0.00485064      -0.01109205       0.00000000
Al      17.02505629       1.01249199       3.03749658       0.04474812      -0.01109205      -0.00485064       0.00000000
Al      15.00000783       3.03743669       3.03743669      -0.01429191      -0.04936564      -0.04936564       0.00000000
Al      19.04994729       1.01249821       1.01249821      -0.02304305      -0.00337217      -0.00337217       0.00000000
Al      21.07501579       3.03749740       1.01249659       0.03265605      -0.00514088      -0.00684889       0.00000000
Al      21.07501579       1.01249659       3.03749740       0.03265605      -0.00684889      -0.00514088       0.00000000
Al      19.04996484       3.03746490       3.03746490       0.00608105      -0.04964494      -0.04964494       0.00000000
Al      14.99998888       5.06250358       1.01249088      -0.01733461       0.00249548      -0.00888950       0.00000000
Al      17.02505490       7.08750242       1.01249758       0.04537628       0.00371227      -0.00371227       0.00000000
Al      17.02507709       5.06255071       3.03744929       0.06094719       0.05609738      -0.05609738       0.00000000
Al      14.99998888       7.08750912       3.03749642      -0.01733461       0.00888950      -0.00249548       0.00000000
Al      19.04994902       5.06250333       1.01249592      -0.01768763       0.00588975      -0.00683864       0.00000000
Al      21.07501550       7.08750170       1.01249830       0.03276980       0.00384601      -0.00384601       0.00000000
Al      21.07502459       5.06252455       3.03747545       0.03784080       0.05581406      -0.05581406       0.00000000
Al      19.04994902       7.08750408       3.03749667      -0.01768762       0.00683864      -0.00588975       0.00000000
Al      14.99998888       1.01249088       5.06250358      -0.01733461      -0.00888950       0.00249547       0.00000000
Al      17.02507709       3.03744929       5.06255071       0.06094719      -0.05609738       0.05609738       0.00000000
Al      17.02505490       1.01249758       7.08750242       0.04537628      -0.00371227       0.00371227       0.00000000
Al      14.99998888       3.03749642       7.08750912      -0.01733461      -0.00249547       0.00888950       0.00000000
Al      19.04994902       1.01249592       5.06250333      -0.01768762      -0.00683864       0.00588974       0.00000000
Al      21.07502459       3.03747545       5.06252455       0.03784079      -0.05581406       0.05581406       0.00000000
Al      21.07501550       1.01249830       7.08750170       0.03276980      -0.00384601       0.00384601       0.00000000
Al      19.04994902       3.03749667       7.08750408      -0.01768762      -0.00588974       0.00683864       0.00000000
Al      15.00000783       5.06256331       5.06256331      -0.01429191       0.04936564       0.04936564       0.00000000
Al      17.02505629       7.08750801       5.06250342       0.04474811       0.01109205       0.00485064       0.00000000
Al      17.02505629       5.06250342       7.08750801       0.04474812       0.00485064       0.01109205       0.00000000
Al      14.99998610       7.08750306       7.08750306      -0.01981310       0.00306455       0.00306455       0.00000000
Al      19.04996484       5.06253510       5.06253510       0.00608106       0.04964494       0.04964494       0.00000000
Al      21.07501579       7.08750341       5.06250260       0.03265604       0.00684889       0.00514088       0.00000000
Al      21.07501579       5.06250260       7.08750341       0.03265604       0.00514088       0.00684889       0.00000000
Al      19.04994729       7.08750179       7.08750179      -0.02304305       0.00337217       0.00337217       0.00000000
H       23.90018147       4.05000000       4.05000000     283.45211095       0.00000000      -0.00000000       0.00000000
33
Lattice="36.075 0.0 0.0 0.0 8.1 0.0 0.0 0.0 8.1" Properties=species:S:1:pos:R:3:momenta:R:3:magmoms:R:1 energy=-125.92725108955105 free_energy=-126.6336490939947 dipole="2.7286568184569298 9.413532533201337 9.413532564328662" magmom=0.0 pbc="T T T"
Al      14.99997209       1.01249814       1.01249814      -0.02617147       0.00610461       0.00610461       0.00000000
Al      17.02507434       3.03749499       1.01249018       0.04103524      -0.00473922      -0.00196204       0.00000000
Al      17.02507434       1.01249018       3.03749499       0.04103524      -0.00196205      -0.00473922       0.00000000
Al      14.99999843       3.03741537       3.03741537      -0.02055654      -0.04583828      -0.04583828       0.00000000
Al      19.04992857       1.01249831       1.01249831      -0.05160137       0.00408675       0.00408675       0.00000000
Al      21.07503214       3.03749452       1.01249338       0.02503279      -0.00583878      -0.00500454       0.00000000
Al      21.07503214       1.01249338       3.03749452       0.02503278      -0.00500454      -0.00583878       0.00000000
Al      19.04995570       3.03744075       3.03744075      -0.03185630      -0.04960100      -0.04960100       0.00000000
Al      14.99997669       5.06250378       1.01248997      -0.02393178       0.00170753      -0.00012487       0.00000000
Al      17.02507396       7.08750153       1.01249847       0.04169360      -0.00480374       0.00480374       0.00000000
Al      17.02510066       5.06257514       3.03742486       0.05488529       0.05173776      -0.05173777       0.00000000
Al      14.99997669       7.08751003       3.03749622      -0.02393178       0.00012487      -0.00170754       0.00000000
Al      19.04993165       5.06250594       1.01249394      -0.04845693       0.00416062      -0.00166402       0.00000000
Al      21.07503220       7.08750341       1.01249659       0.02769962       0.00163443      -0.00163443       0.00000000
Al      21.07504569       5.06254996       3.03745004       0.03781986       0.05255593      -0.05255592       0.00000000
Al      19.04993165       7.08750606       3.03749406      -0.04845693       0.00166402      -0.00416062       0.00000000
Al      14.99997669       1.01248997       5.06250378      -0.02393179      -0.00012487       0.00170753       0.00000000
Al      17.02510066       3.03742486       5.06257514       0.05488529      -0.05173777       0.05173776       0.00000000
Al      17.02507396       1.01249847       7.08750153       0.04169360       0.00480373      -0.00480373       0.00000000
Al      14.99997669       3.03749622       7.08751003      -0.02393179      -0.00170753       0.00012487       0.00000000
Al      19.04993165       1.01249394       5.06250594      -0.04845693      -0.00166402       0.00416062       0.00000000
Al      21.07504569       3.03745004       5.06254996       0.03781985      -0.05255592       0.05255593       0.00000000
Al      21.07503220       1.01249659       7.08750341       0.02769963      -0.00163443       0.00163443       0.00000000
Al      19.04993165       3.03749406       7.08750606      -0.04845693      -0.00416061       0.00166402       0.00000000
Al      14.99999843       5.06258463       5.06258463      -0.02055654       0.04583828       0.04583828       0.00000000
Al      17.02507434       7.08750982       5.06250501       0.04103524       0.00196204       0.00473922       0.00000000
Al      17.02507434       5.06250501       7.08750982       0.04103524       0.00473922       0.00196205       0.00000000
Al      14.99997209       7.08750186       7.08750186      -0.02617146      -0.00610461      -0.00610461       0.00000000
Al      19.04995570       5.06255925       5.06255925      -0.03185629       0.04960100       0.04960100       0.00000000
Al      21.07503214       7.08750662       5.06250548       0.02503279       0.00500454       0.00583878       0.00000000
Al      21.07503214       5.06250548       7.08750662       0.02503278       0.00583878       0.00500454       0.00000000
Al      19.04992857       7.08750169       7.08750169      -0.05160137      -0.00408675      -0.00408675       0.00000000
H       27.54543381       4.05000000       4.05000000     283.46390685       0.00000000      -0.00000001       0.00000000
33